# vtk DataFile Version 5.1
vtk output
ASCII
DATASET POLYDATA
POINTS 1282 float
-85.3829 -38.269 -9.08841 -83.1492 -36.2331 -9.44609 -84.5973 -33.4104 -9.87487 
-81.5894 -27.0935 -9.59788 -87.5426 -21.2379 -9.64392 -81.022 -2.49521 -9.3276 
-88.2666 -6.50662 -9.33548 -83.7615 -3.50456 -9.79341 -84.1526 4.73274 -9.17221 
-87.5664 -31.6414 -9.09793 -80.0945 -26.9764 -8.95505 -79.6612 -6.19304 -8.57333 
-86.7827 3.51759 -9.43349 -83.8801 -41.3994 -6.03706 -81.0289 -32.3851 -8.79085 
-78.3603 -17.1776 -7.08011 -76.0431 -23.5799 -4.95504 -78.2168 -30.9971 -5.2104 
-76.6285 -4.78356 -5.24865 -80.9296 -37.5548 -6.53127 -74.4651 -29.89 -4.4142 
-63.3724 -29.5868 -4.74811 -63.088 -24.0053 -4.34847 -70.2056 -18.0618 -4.76828 
-74.6374 -0.0473176 -4.15583 -80.1834 4.08501 -5.41106 -77.4745 5.20947 -4.1756 
-85.623 8.70243 -5.22774 -81.9755 12.8414 -4.17961 -65.5513 -31.491 -4.19839 
-71.4282 -11.5385 -4.34883 -80.8382 -45.2464 -2.15894 -66.6837 -16.0011 -2.25176 
-69.1251 -11.1967 -2.14811 -84.3528 13.8036 -2.15367 -76.1104 -45.1648 -1.27017 
-78.3331 -35.7456 -2.35875 -75.9736 -38.5133 -1.58123 -71.7749 -34.6242 -1.67401 
-75.5811 -32.1964 -2.17747 -64.5781 -33.4919 -2.19604 -61.9525 -32.0351 -2.13932 
-60.3831 -27.572 -2.31004 -61.6654 -21.0409 -1.85315 -62.8791 -12.143 -1.56128 
-65.6819 -6.14428 -1.08359 -71.368 -2.94655 -2.11477 -77.6692 -47.1301 -0.299134 
-73.3969 -39.4467 -0.0941048 -67.4526 -38.2889 0.415342 -69.8485 -42.4793 0.740517 
-62.0432 -38.6884 1.05833 -56.2393 -37.0555 0.780151 -62.6531 -36.716 -0.0531896 
-56.7443 -30.6475 -0.163469 -53.9783 -35.06 0.396168 -55.5951 -25.1437 -0.033852 
-49.8893 -24.031 0.402701 -51.2688 -20.0362 0.498018 -60.1248 -11.2456 0.251386 
-69.791 -0.911302 -0.692797 -73.3746 1.99802 -1.5382 -74.8706 6.64307 0.0404159 
-79.7363 15.6169 -0.456871 -85.457 18.1353 0.92126 -66.7808 -41.1854 2.69752 
-70.7532 4.38905 2.64812 -48.889 -27.5853 2.38845 -66.3788 -1.93478 2.55977 
-76.9678 18.0269 1.16596 -81.4476 19.0973 1.09053 -50.8605 -33.9204 3.57336 
-46.3286 -24.6855 3.91479 -47.0878 -20.6769 3.59548 -55.3711 -12.0575 2.72603 
-61.5461 -7.17055 2.62489 -59.8064 -4.72637 3.85321 -67.9394 3.45728 3.85615 
-74.2695 17.295 3.95067 -53.54 -37.9265 5.33628 -81.7448 -53.8609 7.33226 
-76.9506 -49.2336 3.54912 -73.8407 -47.383 2.97594 -45.7502 -28.6677 4.73104 
-50.7001 -13.2243 4.55157 -57.6502 -3.50709 5.84136 -64.7269 4.52094 6.54656 
-67.7241 8.73839 6.51019 -84.2521 24.5355 7.99204 -78.8395 24.902 7.9322 
-48.5074 -36.4502 9.17964 -43.0857 -29.1751 9.41799 -74.8309 -52.025 10.4382 
-42.9719 -24.4319 8.97772 -50.146 -8.85421 7.51147 -45.901 -33.3255 7.34163 
-43.3482 -18.1641 9.32597 -45.4691 -18.4975 7.38861 -44.5883 -12.8951 10.2804 
-49.2197 -5.57731 8.96526 -56.8589 -2.09652 7.69949 -72.1887 18.1407 7.81181 
-75.5353 24.9074 9.68328 -53.9429 -0.324495 9.88424 -60.0452 3.46307 9.80878 
-67.4855 15.0101 10.0601 -69.1234 -50.6646 14.0242 -66.6657 -46.5156 6.72117 
-55.8111 5.87943 11.2673 -64.7863 12.1719 10.5332 -83.6502 30.9562 11.516 
-81.6359 -55.0519 13.8024 -52.3142 2.25915 11.6712 -79.644 27.5303 9.70189 
-64.2487 -48.9614 16.7786 -60.0671 -39.9477 4.88922 -39.6442 -25.835 13.0474 
-52.7325 -39.3458 11.6148 -41.6666 -31.1977 14.0533 -41.4015 -17.2287 12.6851 
-39.2385 -12.6876 13.6643 -42.9388 -7.88226 13.2781 -45.725 -6.77194 11.0764 
-55.5559 8.39003 14.9356 -63.1608 13.4295 12.8681 -71.1685 21.7008 12.7019 
-62.8638 18.2017 15.6725 -69.0424 23.2705 14.212 -74.1339 26.1382 12.7769 
-80.8456 32.5576 13.0978 -78.1759 30.5298 12.8801 -76.0522 34.4604 14.0845 
-56.0179 -42.6293 16.0406 -52.2335 -40.8848 18.3035 -36.8561 -10.5689 15.7013 
-73.6356 32.0723 13.9405 -59.5902 -44.7157 12.9036 -37.3953 -25.7983 14.8481 
-27.0309 -20.8012 15.4565 -33.715 -23.6291 15.2438 -36.721 -12.9732 15.1126 
-32.5946 -11.856 16.0242 -46.0001 -2.7584 14.7723 -79.3956 -59.6033 18.8593 
-26.8932 -17.5424 16.4667 -55.5908 11.7598 16.3441 -67.1162 24.2739 17.6577 
-83.555 34.9329 14.5124 -38.7629 -30.47 17.7959 -23.8262 -21.7962 21.2579 
-77.4159 37.6971 17.8801 -34.771 -30.2125 20.1011 -32.4396 -25.2112 17.7211 
-28.8315 -25.0647 19.0632 -34.0284 -7.76373 19.5784 -38.0677 -7.32484 17.5559 
-38.2031 -1.33865 18.7299 -46.8884 2.96433 17.7829 -62.4803 21.6252 19.6489 
-71.0458 33.8748 18.0744 -83.2425 38.3382 18.8467 -74.62 -54.7931 18.444 
-40.3203 -31.907 18.7297 -80.4728 -62.8031 22.4421 -31.2467 -10.2898 19.2899 
-24.0765 -17.836 19.7267 -29.2238 -7.80495 20.5859 -33.8154 1.27307 20.9239 
-36.6473 -0.657949 19.8686 -45.3968 6.17835 19.9837 -53.0659 12.821 19.7739 
-49.2225 16.8665 20.8239 -45.9662 12.5083 20.7071 -56.3268 21.5539 20.8203 
-63.9103 28.6462 20.5296 -71.8254 39.0057 20.0248 -76.312 42.7195 20.2195 
-50.5891 20.6242 23.0785 -66.6484 37.4249 23.6901 -67.6899 34.6964 21.1212 
-78.5002 42.1271 19.1654 -72.159 44.7891 21.4973 -66.3754 -51.3042 22.5993 
-55.3756 -44.7459 22.5885 -23.8945 -10.857 21.5937 -31.9581 2.45541 23.1289 
-69.8488 40.9321 21.4057 -46.3819 -36.3649 20.1879 -36.6124 -31.5029 22.9521 
-20.7807 -21.6346 24.5562 -28.2864 -4.93202 23.2831 -32.7151 4.81171 24.0892 
-39.3242 9.59214 22.7355 -44.7093 14.2754 22.7276 -37.5434 12.7826 24.3648 
-42.7982 17.0936 24.5417 -61.6596 29.033 22.6284 -59.2941 32.0189 24.4823 
-62.2272 35.4572 24.6731 -27.859 2.83456 23.9527 -30.6331 6.20218 28.6507 
-71.8614 46.1812 25.2542 -77.419 -60.9702 22.9109 -69.9369 -54.191 25.3218 
-54.4772 -44.7827 27.7116 -27.6722 -26.5015 27.1192 -20.7021 -15.8069 23.8145 
-25.3049 -6.69834 24.0917 -26.0207 -2.93949 25.9756 -44.4437 19.4624 25.6207 
-54.3254 27.8473 25.1152 -52.6772 29.1062 26.4585 -75.3018 45.4847 22.6622 
-25.7478 -25.4557 23.3912 -18.8359 -12.8673 27.3185 -75.2902 48.5011 27.9662 
-77.6029 -65.0262 25.7317 -42.1605 -33.2709 22.2932 -23.5579 -24.3195 31.0229 
-24.5583 2.27429 29.1008 -37.3898 14.9877 29.9072 -81.5761 45.541 27.9521 
-22.8079 -89.3749 28.2008 -28.5839 -87.4796 28.5075 -23.2511 -84.8281 27.9795 
-28.9412 -82.3136 28.4994 -75.8181 -65.9783 27.931 -72.5068 -65.9869 29.127 
-46.6156 -38.8611 28.8045 -40.4907 -31.4031 27.377 -20.7931 -22.6128 30.3651 
-19.1295 -19.3263 26.6736 -43.489 22.0432 29.6749 -47.8099 26.4037 26.478 
-66.9174 44.4197 28.0745 -69.6309 46.8758 27.8829 -68.3573 51.8814 29.0497 
-81.3907 49.7436 29.1037 -75.0541 53.4402 29.2716 -62.8858 48.1115 31.0339 
-72.6023 -61.1973 28.3281 -38.4321 -28.2361 30.4722 -18.6752 -18.6814 30.9346 
-21.7949 -3.67424 30.7247 -56.7486 34.7415 29.6265 -62.1802 38.7989 29.884 
-14.3979 -87.233 31.2598 -18.9818 -84.9386 29.8319 -48.0167 -84.3104 30.0145 
-22.3218 -78.4846 31.1458 -28.234 -77.3502 30.779 -50.1332 -80.6625 30.5159 
-43.1834 -77.5349 29.9653 -39.6871 -75.6027 32.2909 -44.0716 -74.6103 30.5297 
-76.0339 -70.1314 30.2345 -29.2418 -25.4733 30.8393 -26.6605 5.5267 30.7475 
-45.2575 25.465 32.7156 -65.7279 51.2268 31.3942 -16.6894 -90.4537 28.7739 
-40.4865 -78.2106 31.1076 -40.3743 -28.103 32.8973 -19.1442 -20.8423 34.5561 
-28.1024 8.41718 32.6709 -41.4046 22.7785 32.7716 -49.4309 29.7419 30.5264 
-49.0896 31.1488 33.1277 -52.0654 33.119 31.1951 -58.5256 43.2882 31.1724 
-43.9022 -83.4077 32.5538 -48.7528 -75.9409 32.5483 -43.1011 -73.0971 32.4719 
-73.2099 -71.1796 29.5679 -66.289 -56.1145 35.8182 -60.0246 -49.2377 28.411 
-34.3548 -24.8206 31.8193 -33.6311 14.2104 32.8739 -47.2054 -87.3567 33.4449 
-38.6244 -78.5243 33.8754 -19.9502 -77.7663 34.4333 -43.6009 -68.9882 33.6659 
-65.8872 -52.4603 29.2481 -51.4449 -44.9329 33.899 -48.3726 -43.1773 39.2878 
-18.7804 -9.38739 30.9154 -23.0983 3.78716 33.218 -28.6901 15.2309 33.977 
-37.3018 22.5034 33.5398 -48.6529 33.9397 34.947 -53.517 42.6135 35.2464 
-70.2951 54.1072 32.6618 -13.6093 -90.3013 35.0106 -44.1911 -88.8041 34.1924 
-12.9464 -82.3116 37.5203 -29.8043 -71.3363 37.7356 -70.4192 -65.4725 34.2926 
-70.3219 -62.1783 34.484 -18.156 -6.30789 35.3213 -20.4733 0.347984 35.1738 
-41.9295 -88.6835 37.3519 -41.5682 -83.6522 34.8464 -32.0328 -80.118 31.5998 
-16.2623 -78.981 35.823 -27.2003 -74.6563 34.4634 -25.5163 -70.691 35.3644 
-68.7705 -70.3916 34.3543 -38.6971 -69.781 34.1808 -54.77 -48.2479 36.6051 
-43.1695 -35.6645 32.3011 -42.002 -30.3362 36.0676 -34.5163 -25.128 35.3979 
-22.652 7.95683 35.6823 -23.2554 13.4628 36.9016 -32.4909 24.2197 36.1362 
-41.5006 28.0694 35.0666 -39.1991 30.5282 36.0928 -43.3494 34.2948 35.8832 
-49.1123 40.3139 36.3801 -44.6961 -90.0475 37.7506 -51.6466 -75.1993 34.445 
-21.9904 -70.8152 35.8927 -40.4337 -65.4723 37.6509 -68.9089 -59.3274 35.0355 
-42.7419 -35.8976 38.3192 -24.4401 -24.1218 35.6189 -25.0744 -22.8868 40.7323 
-21.058 -22.409 38.3635 -16.8825 -14.9349 35.8102 -14.5168 -75.8925 39.2975 
-68.2637 -72.9343 35.0034 -22.5248 -67.2062 39.2405 -41.3323 -29.1321 37.3864 
-20.938 8.24617 38.8434 -59.0447 49.6703 37.6139 -13.2397 -92.1311 38.0663 
-38.9418 -82.4909 38.4424 -34.4832 -81.5992 37.1876 -36.8398 -74.8029 35.0739 
-68.9418 -74.4087 37.4307 -66.0952 -70.8656 39.1336 -33.162 -74.4232 38.727 
-54.9272 -74.8079 37.7538 -17.4006 -71.2612 39.4569 -56.6012 -71.0801 38.4474 
-25.5117 -68.2355 37.87 -46.7812 -68.125 37.7164 -31.1318 -67.0434 39.7287 
-28.336 -63.8406 38.2126 -66.4597 -57.0019 37.2982 -60.4548 -53.278 38.4642 
-30.958 -23.6958 40.359 -28.1927 18.9518 36.2673 -46.127 40.9475 39.8163 
-51.8219 46.3987 39.7931 -64.57 53.6593 37.6126 -69.6096 56.161 38.0817 
-62.6798 57.655 39.3896 -66.8197 -75.8558 43.1841 -58.7337 -74.1321 38.6352 
-35.8877 -69.6049 38.3789 -68.3855 -61.1737 36.3381 -26.3277 -61.1342 39.5498 
-50.4446 -47.9941 42.416 -35.5759 -26.5659 38.9855 -15.975 -17.6754 38.4415 
-29.5303 23.9319 40.2534 -40.6747 36.1652 39.7279 -39.1186 -89.5069 39.5755 
-58.9174 -78.2684 39.0807 -14.1061 -71.5391 40.8193 -36.3814 -63.7486 38.8468 
-21.6081 -63.0053 40.8125 -41.9838 -61.8601 38.4953 -45.956 -39.3975 41.1144 
[...]
CELL_DATA 2326
FIELD FieldData 1
vtkOriginalCellIds 1 2326 vtkIdType
0 1 2 3 4 6 7 8 9 
11 12 13 14 15 16 17 18 20 
23 24 26 27 30 31 35 38 40 
41 42 44 46 48 49 50 51 52 
53 55 56 57 58 59 60 61 63 
65 66 68 69 70 72 73 75 76 
77 78 79 81 82 83 84 89 93 
95 96 97 98 99 101 102 103 104 
105 106 107 108 109 110 112 113 115 
117 119 122 124 126 127 129 130 131 
134 135 136 137 138 139 140 141 142 
144 146 147 148 149 151 152 156 157 
159 160 162 163 164 166 167 168 169 
173 174 175 176 178 181 183 184 186 
188 189 190 191 193 194 196 197 198 
199 201 202 203 204 207 208 209 210 
215 218 219 220 222 223 224 225 227 
232 234 235 236 240 241 242 243 245 
246 248 250 254 255 256 257 258 259 
260 262 264 266 267 269 270 272 273 
275 276 277 280 286 288 289 291 292 
294 295 296 297 298 300 302 303 304 
306 307 308 312 313 314 315 316 317 
318 319 320 322 323 325 327 330 333 
334 335 336 337 338 340 341 342 344 
345 346 347 349 350 351 352 354 355 
356 358 359 365 366 367 370 371 372 
373 374 375 376 377 381 382 384 385 
386 388 389 390 391 392 393 394 395 
396 397 398 399 400 401 403 406 407 
408 409 410 411 412 413 416 417 419 
420 421 422 423 424 426 427 428 430 
433 435 436 439 440 441 442 443 445 
446 447 449 450 451 452 453 457 458 
459 460 461 462 463 464 465 466 467 
468 469 470 471 472 473 474 475 476 
478 479 481 482 484 487 488 489 490 
491 492 493 495 496 497 498 502 504 
505 506 507 509 510 511 513 514 515 
518 519 520 524 525 526 527 528 529 
530 531 532 535 536 537 541 542 543 
545 547 548 549 550 552 553 554 555 
556 559 560 561 562 563 567 569 570 
571 573 575 577 578 579 580 581 582 
585 587 588 591 592 594 597 598 600 
602 603 604 605 610 611 612 613 615 
616 618 620 623 624 625 626 628 630 
635 636 637 638 639 640 641 642 643 
644 645 647 648 651 652 654 655 657 
658 659 660 661 664 668 669 670 671 
672 673 674 676 677 678 680 681 682 
683 684 685 686 687 689 690 691 692 
694 695 696 698 699 700 702 704 705 
707 709 710 711 714 715 717 719 720 
722 725 729 730 731 733 734 736 737 
738 739 740 744 746 747 749 750 756 
757 758 761 763 765 766 767 768 769 
770 771 772 775 776 777 778 780 781 
782 784 785 786 787 790 791 792 793 
794 795 796 797 798 802 803 808 810 
811 812 813 816 818 819 821 823 825 
826 830 831 832 833 834 835 836 837 
838 839 840 841 843 844 845 846 847 
848 849 850 852 853 854 855 856 857 
858 860 861 862 864 865 867 873 876 
878 879 880 881 882 883 884 885 887 
889 890 891 892 896 897 898 899 900 
901 902 903 904 905 906 907 909 911 
912 914 915 916 917 918 922 924 927 
928 929 931 932 933 934 935 936 937 
938 939 940 941 942 943 944 945 946 
947 948 949 950 952 953 954 956 957 
958 960 961 962 964 965 968 969 970 
971 972 975 976 978 980 982 985 986 
989 991 993 997 998 999 1000 1003 1004 
1005 1007 1009 1010 1011 1012 1015 1016 1018 
1019 1020 1022 1023 1025 1026 1027 1028 1029 
1031 1032 1040 1043 1046 1047 1048 1049 1050 
1051 1052 1054 1055 1056 1057 1058 1059 1060 
1061 1062 1063 1064 1065 1066 1067 1072 1074 
1075 1076 1078 1079 1082 1083 1085 1086 1088 
1089 1090 1091 1093 1094 1095 1096 1097 1098 
1099 1100 1102 1103 1104 1105 1106 1109 1111 
1112 1114 1115 1116 1117 1118 1119 1120 1121 
1122 1123 1124 1125 1126 1128 1129 1130 1131 
1132 1133 1134 1135 1138 1139 1140 1141 1142 
1143 1144 1145 1146 1150 1151 1153 1156 1157 
1158 1159 1161 1162 1163 1164 1166 1168 1169 
1170 1171 1173 1175 1177 1178 1180 1184 1186 
1188 1191 1192 1193 1194 1196 1199 1200 1201 
1202 1203 1204 1205 1206 1207 1209 1210 1211 
1212 1213 1214 1215 1216 1217 1218 1219 1220 
1221 1222 1223 1224 1225 1226 1227 1230 1232 
1233 1234 1236 1237 1238 1239 1240 1241 1242 
1243 1244 1245 1246 1247 1248 1255 1256 1258 
1259 1262 1263 1264 1266 1267 1268 1269 1270 
1271 1272 1273 1274 1275 1277 1278 1279 1280 
1282 1283 1284 1285 1290 1291 1292 1294 1296 
1297 1298 1299 1300 1301 1302 1303 1304 1305 
1307 1308 1312 1313 1314 1316 1317 1318 1319 
1322 1323 1324 1325 1326 1328 1330 1331 1332 
1333 1334 1335 1337 1338 1339 1340 1342 1343 
1344 1345 1346 1347 1348 1349 1350 1351 1352 
1353 1354 1355 1356 1358 1360 1362 1363 1364 
1365 1367 1369 1370 1371 1372 1373 1374 1375 
1376 1377 1378 1379 1380 1385 1389 1390 1391 
1393 1394 1395 1396 1397 1399 1400 1401 1402 
1403 1404 1405 1406 1407 1408 1409 1415 1418 
1420 1422 1423 1424 1425 1426 1427 1428 1429 
1430 1431 1432 1433 1434 1435 1436 1437 1438 
1439 1440 1442 1443 1444 1445 1446 1447 1448 
1449 1450 1451 1452 1454 1455 1456 1457 1461 
1463 1464 1465 1466 1473 1475 1476 1477 1478 
1479 1482 1483 1484 1486 1487 1490 1491 1493 
1495 1500 1502 1503 1504 1505 1506 1508 1509 
1510 1511 1512 1514 1515 1519 1522 1523 1524 
1525 1526 1528 1530 1531 1533 1534 1535 1536 
1537 1538 1540 1541 1542 1543 1544 1545 1546 
1547 1549 1551 1554 1555 1557 1565 1567 1571 
1573 1575 1577 1578 1579 1581 1582 1584 1586 
1587 1589 1591 1594 1600 1601 1602 1603 1605 
1606 1607 1609 1610 1611 1612 1613 1614 1616 
1617 1618 1619 1620 1622 1623 1625 1629 1633 
1634 1636 1637 1638 1639 1640 1641 1643 1644 
1645 1646 1647 1648 1649 1650 1652 1653 1656 
1660 1663 1672 1673 1675 1676 1677 1678 1679 
1680 1681 1682 1683 1684 1686 1688 1689 1694 
1695 1696 1703 1709 1710 1711 1712 1713 1714 
1715 1716 1717 1718 1719 1720 1721 1722 1723 
1724 1725 1726 1727 1728 1729 1730 1731 1732 
1734 1736 1737 1738 1739 1740 1741 1742 1743 
1746 1748 1751 1753 1754 1755 1756 1757 1759 
1760 1761 1762 1763 1764 1766 1770 1771 1772 
1773 1774 1783 1784 1785 1787 1788 1790 1791 
1792 1794 1795 1796 1797 1798 1799 1800 1801 
1802 1803 1804 1805 1806 1807 1808 1809 1810 
1811 1812 1813 1814 1816 1817 1818 1819 1820 
1821 1822 1824 1825 1826 1827 1837 1838 1839 
1841 1842 1843 1844 1845 1846 1847 1848 1849 
1850 1851 1852 1853 1854 1855 1856 1857 1859 
1860 1861 1862 1870 1871 1873 1874 1875 1876 
1878 1879 1880 1882 1883 1886 1887 1888 1889 
1890 1891 1892 1893 1894 1895 1898 1900 1901 
1903 1907 1908 1909 1910 1911 1912 1913 1914 
1916 1917 1919 1920 1921 1922 1924 1925 1926 
1927 1929 1930 1931 1939 1944 1945 1946 1947 
1948 1949 1950 1951 1952 1953 1956 1957 1958 
1959 1967 1971 1972 1973 1974 1975 1976 1977 
1979 1980 1983 1984 1985 1987 1988 1989 1990 
1991 1992 1993 1994 1996 1998 1999 2000 2001 
2002 2003 2005 2006 2009 2010 2011 2012 2013 
2014 2015 2016 2018 2019 2020 2025 2027 2028 
2029 2030 2031 2032 2033 2034 2035 2036 2037 
2038 2039 2040 2042 2043 2044 2046 2048 2049 
2050 2051 2060 2061 2062 2063 2064 2065 2066 
2067 2068 2069 2071 2072 2073 2074 2075 2076 
2077 2078 2080 2083 2084 2085 2086 2092 2093 
2094 2095 2098 2099 2100 2101 2102 2103 2104 
2105 2106 2107 2108 2109 2110 2111 2112 2113 
2115 2116 2118 2119 2121 2122 2123 2124 2125 
2126 2134 2136 2138 2139 2140 2142 2143 2144 
2145 2146 2147 2149 2150 2166 2167 2168 2169 
2170 2171 2173 2174 2175 2177 2178 2179 2181 
2182 2183 2184 2186 2187 2188 2189 2190 2191 
2192 2194 2195 2196 2199 2200 2201 2204 2205 
2206 2207 2208 2209 2210 2222 2223 2225 2226 
2227 2229 2230 2231 2232 2233 2234 2235 2236 
2237 2238 2239 2240 2242 2243 2244 2245 2246 
2247 2248 2249 2250 2251 2252 2253 2255 2257 
2258 2259 2260 2261 2262 2264 2280 2281 2282 
2285 2286 2287 2289 2290 2291 2292 2294 2295 
2296 2297 2298 2316 2317 2318 2319 2322 2323 
2324 2325 2326 2327 2328 2329 2330 2331 2332 
2333 2334 2335 2337 2338 2339 2340 2341 2343 
2344 2345 2346 2347 2348 2349 2350 2351 2352 
2353 2354 2355 2357 2364 2365 2367 2368 2369 
2370 2371 2372 2374 2375 2376 2377 2378 2379 
2381 2382 2383 2385 2386 2387 2388 2389 2390 
2398 2400 2401 2402 2403 2404 2405 2406 2407 
2410 2411 2412 2413 2415 2418 2419 2420 2421 
2422 2437 2438 2439 2440 2441 2442 2443 2444 
2445 2446 2447 2448 2449 2450 2451 2452 2453 
2454 2469 2470 2471 2472 2474 2475 2477 2478 
2479 2480 2481 2482 2483 2485 2486 2487 2494 
2495 2498 2501 2504 2505 2506 2507 2508 2509 
2510 2511 2512 2513 2515 2516 2517 2519 2520 
2522 2523 2524 2525 2526 2527 2528 2529 2531 
2532 2533 2534 2535 2536 2537 2538 2539 2540 
2543 2544 2545 2547 2548 2550 2551 2552 2575 
2580 2581 2583 2584 2585 2586 2587 2589 2593 
2594 2595 2596 2597 2598 2599 2601 2602 2603 
2606 2607 2608 2609 2611 2614 2616 2624 2627 
2631 2632 2634 2635 2636 2637 2638 2639 2640 
2641 2642 2643 2644 2645 2647 2648 2649 2650 
2651 2652 2654 2655 2656 2657 2658 2659 2660 
2661 2662 2664 2665 2667 2668 2670 2671 2672 
2674 2675 2688 2689 2691 2692 2693 2696 2697 
2698 2699 2700 2701 2705 2706 2708 2710 2728 
2730 2731 2732 2733 2734 2735 2736 2738 2739 
2740 2741 2742 2743 2744 2745 2746 2747 2748 
2749 2750 2751 2752 2754 2755 2756 2771 2772 
2775 2776 2778 2779 2780 2781 2783 2784 2785 
2786 2787 2788 2789 2790 2791 2792 2794 2795 
2796 2798 2799 2800 2802 2803 2819 2820 2821 
2822 2823 2825 2826 2827 2828 2830 2831 2832 
2833 2835 2837 2839 2840 2841 2842 2853 2854 
2855 2857 2859 2860 2861 2862 2863 2864 2865 
2866 2867 2868 2869 2870 2871 2872 2873 2874 
2875 2876 2877 2879 2880 2881 2882 2883 2884 
2887 2889 2890 2892 2894 2895 2896 2897 2902 
2924 2925 2928 2929 2930 2932 2933 2934 2935 
2936 2937 2938 2939 2940 2941 2942 2943 2944 
2950 2951 2952 2965 2966 2967 2968 2969 2971 
2972 2973 2974 2976 2977 2978 2980 2981 2982 
2983 2999 3001 3003 3005 3006 3007 3008 3009 
3011 3012 3013 3014 3015 3016 3018 3019 3020 
3021 3022 3023 3024 3025 3026 3027 3028 3029 
3030 3031 3032 3033 3034 3035 3036 3037 3038 
3039 3040 3041 3042 3044 3046 3047 3048 3049 
3050 3051 3052 3053 3054 3058 3081 3082 3087 
3089 3092 3093 3094 3095 3096 3098 3099 3100 
3101 3104 3105 3106 3107 3108 3123 3125 3126 
3128 3130 3131 3132 3133 3134 3135 3136 3137 
3138 3139 3142 3145 3148 3164 3166 3167 3168 
3169 3170 3171 3172 3173 3174 3175 3177 3178 
3179 3181 3182 3184 3193 3195 3199 3200 3201 
3202 3203 3204 3205 3206 3207 3208 3209 3210 
3211 3223 3226 3228 3229 3230 3235 3236 3237 
3238 3239 3240 3241 3242 3261 3265 3266 3267 
3268 3269 3270 3271 3272 3273 3274 3278 3279 
3298 3305 3307 3311 3313 3314 3315 3316 3317 
3318 3322 3323 3345 3351 3352 3354 3357 3359 
3364 3365 3366 3377 3381 3382 3383 3384 3388 
3399 3400 3402 3404 3406 3407 3409 3410 3411 
3414 3416 3418 3419 3420 3421 3426 3449 3452 
3453 3454 3456 3459 3461 3463 3465 3475 3476 
3484 3486 3488 3489 3490 3492 3493 3494 3495 
3497 3498 3499 3500 3501 3502 3503 3504 3505 
3506 3507 3508 3509 3510 3512 3513 3515 3516 
3518 3552 3553 3554 3555 3557 3558 3559 3560 
3561 3562 3563 3564 3565 3576 3577 3579 3581 
3583 3585 3587 3590 3591 3592 3593 3594 3599 
3617 3618 3621 3623 3625 3626 3627 3628 3629 
3630 3631 3633 3637 3642 3643 3670 3675 3677 
3680 3681 3683 3684 3685 3687 3705 3708 3709 
3710 3712 3713 3714 3717 3718 3721 3722 3725 
3726 3727 3728 3729 3730 3731 3732 3733 3734 
3735 3736 3737 3738 3739 3740 3741 3742 3743 
3748 3771 3776 3784 3785 3786 3787 3794 3795 
3797 3806 3807 3808 3811 3814 3817 3818 3819 
3820 3821 3822 3850 3851 3852 3854 3858 3859 
3861 3864 3865 3866 3867 3868 3869 3873 3876 
3898 3901 3906 3937 3946 3947 3953 3954 3957 
3959 3960 3962 3965 3966 3973 3999 4003 4004 
4008 4012 4030 4034 4038 4039 4040 4041 4071 
4082 4094 4096 4130 4140 4142 4149 4162 4164 
4171 4174 4187 4188 4226 4234 4235 4255 4256 
4257 4272 4280 4296 4299 4374 4400 4403 4411 
4497 4498 4499 4536 
POINT_DATA 1282
FIELD FieldData 1
vtkOriginalPointIds 1 1282 vtkIdType
0 1 2 3 4 5 6 7 8 
9 10 12 14 15 16 17 18 21 
23 24 25 26 27 30 32 33 34 
35 36 37 38 40 42 43 46 47 
48 49 50 51 52 53 54 55 57 
58 59 62 64 65 68 69 70 71 
72 73 74 75 76 77 78 79 80 
81 82 85 87 89 91 93 94 95 
96 97 99 100 101 102 103 104 109 
110 111 112 113 114 115 116 118 119 
120 121 126 128 129 133 134 135 136 
137 139 142 144 145 146 147 148 149 
151 152 153 154 155 159 160 162 163 
165 166 167 168 169 170 172 173 174 
175 177 178 179 180 182 183 184 185 
187 188 190 191 192 193 194 195 197 
201 202 203 205 208 210 212 214 215 
216 217 218 219 220 221 222 223 224 
225 227 229 230 231 232 233 234 235 
236 237 238 239 240 241 243 245 246 
247 248 249 250 252 253 255 258 259 
260 261 262 263 264 265 266 268 269 
270 273 274 276 277 278 279 280 281 
283 284 286 288 289 290 292 293 295 
297 298 299 300 302 305 306 307 308 
309 310 311 312 313 314 315 317 318 
319 320 321 322 323 324 325 327 330 
331 334 336 339 340 341 342 343 344 
345 346 347 348 350 351 352 354 355 
357 360 361 362 363 364 365 366 367 
370 371 372 373 374 376 377 381 383 
385 386 387 389 390 391 393 394 395 
396 397 398 399 402 403 405 407 408 
409 412 413 416 417 418 419 420 421 
422 423 425 426 427 428 430 431 432 
434 435 436 437 440 442 443 444 446 
447 448 449 450 451 453 454 456 457 
458 459 460 462 463 464 465 466 467 
468 469 470 471 472 473 474 475 476 
477 478 479 480 482 483 485 487 488 
489 490 491 492 493 494 499 500 502 
503 504 506 508 509 513 514 515 517 
518 519 520 521 524 525 526 527 528 
530 531 532 533 534 535 536 537 539 
540 541 543 544 545 546 549 551 552 
553 556 557 558 559 560 561 562 563 
564 565 566 567 568 569 570 571 572 
573 575 576 577 578 579 581 582 583 
585 586 587 588 589 590 593 594 597 
598 601 602 604 605 606 609 610 611 
612 613 614 615 616 617 618 619 620 
621 623 624 625 626 627 628 629 632 
633 635 636 637 639 641 643 644 645 
646 647 649 650 653 654 655 656 657 
658 659 660 661 663 664 665 667 669 
670 671 672 673 674 676 677 678 679 
680 681 682 683 684 685 686 687 688 
689 690 691 692 693 694 695 696 699 
701 702 703 704 707 708 710 711 712 
714 715 717 718 720 721 722 723 725 
726 727 728 729 730 732 733 734 736 
737 742 743 744 745 746 747 748 749 
750 751 759 760 761 762 763 764 767 
769 771 774 776 777 778 779 780 781 
782 783 785 786 790 791 792 794 795 
797 798 799 802 803 804 805 806 807 
808 809 810 811 812 813 814 815 817 
818 819 820 821 826 829 830 831 832 
835 842 844 846 847 848 849 851 852 
853 854 855 856 857 858 859 860 862 
864 865 866 867 868 869 870 871 872 
873 874 876 877 879 883 884 885 886 
887 888 891 892 895 896 898 899 900 
901 902 903 904 905 906 907 908 910 
911 912 913 915 916 917 918 919 920 
921 922 930 931 932 934 935 937 938 
940 941 942 943 947 948 950 951 952 
953 956 957 958 959 960 961 962 963 
967 968 969 970 971 972 973 974 975 
976 978 982 984 985 986 987 988 989 
991 992 993 995 997 998 999 1000 1005 
1006 1008 1009 1010 1011 1012 1013 1014 1015 
1016 1017 1018 1020 1023 1024 1025 1026 1031 
1032 1033 1034 1035 1036 1037 1038 1039 1041 
1046 1047 1051 1052 1053 1055 1056 1057 1058 
1065 1066 1067 1068 1069 1071 1072 1073 1074 
1075 1076 1077 1078 1079 1080 1081 1082 1084 
1088 1089 1090 1091 1092 1093 1094 1095 1096 
1101 1102 1103 1104 1105 1106 1107 1108 1109 
1110 1112 1113 1114 1115 1116 1118 1119 1121 
1122 1123 1128 1129 1130 1131 1132 1133 1134 
1135 1136 1137 1139 1140 1142 1149 1150 1151 
1153 1154 1156 1157 1158 1159 1160 1161 1162 
1163 1165 1166 1170 1172 1173 1175 1176 1178 
1180 1181 1182 1183 1184 1185 1186 1188 1189 
1190 1191 1192 1193 1201 1202 1203 1204 1205 
1206 1207 1208 1209 1218 1220 1221 1222 1223 
1224 1225 1226 1228 1229 1230 1231 1234 1235 
1237 1240 1241 1242 1243 1244 1250 1253 1254 
1255 1256 1258 1259 1260 1261 1263 1264 1265 
1271 1272 1273 1274 1276 1277 1278 1279 1280 
1281 1282 1283 1284 1285 1287 1288 1289 1291 
1292 1293 1294 1295 1296 1298 1299 1301 1312 
1313 1315 1316 1319 1321 1322 1323 1331 1335 
1337 1338 1339 1340 1341 1342 1344 1345 1346 
1347 1348 1352 1353 1354 1355 1356 1357 1358 
1359 1360 1361 1362 1363 1364 1365 1366 1368 
1369 1370 1371 1373 1375 1376 1378 1386 1387 
1388 1389 1390 1391 1392 1393 1394 1395 1403 
1405 1406 1408 1409 1410 1411 1412 1413 1414 
1418 1420 1421 1422 1423 1424 1425 1427 1428 
1435 1437 1439 1440 1441 1442 1443 1444 1446 
1447 1448 1449 1450 1451 1452 1454 1455 1456 
1457 1459 1460 1472 1475 1476 1478 1479 1481 
1482 1490 1494 1495 1496 1497 1499 1500 1502 
1503 1504 1505 1506 1507 1508 1509 1510 1511 
1512 1513 1514 1515 1518 1525 1527 1528 1529 
1531 1532 1533 1534 1535 1536 1537 1539 1540 
1541 1542 1543 1544 1545 1546 1547 1548 1549 
1550 1554 1555 1556 1566 1567 1570 1571 1572 
1573 1574 1575 1576 1578 1579 1580 1586 1587 
1588 1589 1590 1597 1598 1599 1601 1602 1605 
1613 1617 1618 1619 1620 1621 1623 1633 1634 
1635 1636 1637 1638 1647 1648 1651 1652 1654 
1657 1673 1674 1675 1676 1677 1678 1688 1690 
1691 1693 1699 1700 1702 1703 1704 1705 1706 
1708 1713 1716 1717 1718 1721 1722 1724 1726 
1739 1741 1742 1744 1745 1746 1747 1754 1757 
1760 1761 1762 1763 1764 1766 1767 1768 1769 
1770 1771 1772 1773 1790 1791 1792 1794 1795 
1796 1798 1803 1809 1810 1811 1812 1816 1825 
1826 1828 1830 1832 1834 1835 1836 1837 1838 
1839 1843 1860 1861 1862 1863 1864 1865 1872 
1873 1875 1876 1878 1880 1881 1882 1883 1884 
1888 1889 1890 1891 1892 1893 1894 1895 1911 
1912 1915 1925 1932 1933 1934 1935 1936 1937 
1939 1949 1950 1951 1953 1956 1959 1960 1961 
1964 1965 1966 1975 1976 1985 1999 2001 2004 
2005 2007 2008 2027 2033 2036 2044 2047 2085 
2086 2088 2090 2091 2092 2094 2102 2118 2126 
2128 2129 2142 2151 2160 2168 2170 2177 2194 
2211 2217 2268 2282 2283 2305 2513 2514 2515 
2516 2517 2518 2519 
